 &FCI NORB=  8,NELEC=  8,MS2= 0,
  ORBSYM=1,1,1,1,1,1,1,1,
  ISYM=1 
 &END
  2.4821650648813037e-01   1   1   1   1 
  2.4821650648813051e-01   2   2   1   1 
  2.4821650648813048e-01   3   3   1   1 
  2.4821650648813046e-01   4   4   1   1 
  2.4821650648813043e-01   5   5   1   1 
  2.4821650648813032e-01   6   6   1   1 
  2.4821650648813054e-01   7   7   1   1 
  2.4821650648813035e-01   8   8   1   1 
  5.5207548982327152e-02   2   1   2   1 
  3.9732029378568720e-02   4   2   2   1 
 -2.0683056062085984e-02   4   3   2   1 
  1.5475519603906571e-02   5   2   2   1 
  2.9728382387087669e-02   5   3   2   1 
 -1.5475519603450580e-02   6   4   2   1 
 -3.9732029379022961e-02   6   5   2   1 
 -9.0453263254897057e-03   7   1   2   1 
  2.9728382387325190e-02   7   4   2   1 
 -2.0683056061215052e-02   7   5   2   1 
 -9.0453263254901863e-03   8   3   2   1 
 -5.5207548982326479e-02   8   6   2   1 
  2.4921613061901635e-01   2   2   2   2 
 -9.6746892840588947e-04   3   2   2   2 
  2.4721688235724493e-01   3   3   2   2 
  1.5032534293953452e-03   4   1   2   2 
  2.4821650648813065e-01   4   4   2   2 
 -8.5887800589504876e-04   5   1   2   2 
  2.4821650648813065e-01   5   5   2   2 
  3.5524870719498731e-04   6   2   2   2 
 -9.6746892839729565e-04   6   3   2   2 
  2.4921613061900980e-01   6   6   2   2 
  9.6746892839725748e-04   7   2   2   2 
  3.5524870761341476e-04   7   3   2   2 
  9.6746892838863938e-04   7   6   2   2 
  2.4721688235725134e-01   7   7   2   2 
 -8.5887800591644137e-04   8   4   2   2 
  1.5032534293725128e-03   8   5   2   2 
  2.4821650648813040e-01   8   8   2   2 
  5.5207548982327173e-02   3   1   3   1 
 -2.0683056062085998e-02   4   2   3   1 
 -3.9732029378568734e-02   4   3   3   1 
  2.9728382387087974e-02   5   2   3   1 
 -1.5475519603906602e-02   5   3   3   1 
 -9.0453263254897144e-03   6   1   3   1 
 -2.9728382387325187e-02   6   4   3   1 
  2.0683056061215066e-02   6   5   3   1 
 -1.5475519603450612e-02   7   4   3   1 
 -3.9732029379021226e-02   7   5   3   1 
  9.0453263254892252e-03   8   2   3   1 
  5.5207548982327825e-02   8   7   3   1 
 -3.5524870743192273e-04   3   2   3   2 
  9.6746892840589142e-04   3   3   3   2 
 -7.8253931250510487e-04   4   1   3   2 
 -1.6498996116934171e-03   5   1   3   2 
  1.4649699957958835e-03   6   2   3   2 
 -3.5524870742875903e-04   6   3   3   2 
 -9.6746892843199424e-04   6   6   3   2 
  3.5524870742875887e-04   7   2   3   2 
  1.4649699957958867e-03   7   3   3   2 
  3.5524870742559126e-04   7   6   3   2 
  9.6746892843199771e-04   7   7   3   2 
 -1.6498996116822663e-03   8   4   3   2 
 -7.8253931254886695e-04   8   5   3   2 
  2.4921613061901629e-01   3   3   3   3 
 -1.5032534293954562e-03   4   1   3   3 
  2.4821650648813057e-01   4   4   3   3 
  8.5887800589483018e-04   5   1   3   3 
  2.4821650648813054e-01   5   5   3   3 
 -3.5524870761331241e-04   6   2   3   3 
  9.6746892839722973e-04   6   3   3   3 
  2.4721688235725109e-01   6   6   3   3 
 -9.6746892839726789e-04   7   2   3   3 
 -3.5524870719485374e-04   7   3   3   3 
 -9.6746892838865325e-04   7   6   3   3 
  2.4921613061900999e-01   7   7   3   3 
  8.5887800591627830e-04   8   4   3   3 
 -1.5032534293727209e-03   8   5   3   3 
  2.4821650648813051e-01   8   8   3   3 
  1.9106150649361789e-03   4   1   4   1 
 -4.0736163559057682e-04   6   2   4   1 
 -7.8253931249813247e-04   6   3   4   1 
  1.5032534294025937e-03   6   6   4   1 
  7.8253931249813269e-04   7   2   4   1 
 -4.0736163559056365e-04   7   3   4   1 
  7.8253931249116192e-04   7   6   4   1 
 -1.5032534294027306e-03   7   7   4   1 
  1.9106150649361785e-03   8   5   4   1 
  3.1866060136794577e-02   4   2   4   2 
  3.5793536837902741e-02   5   3   4   2 
  7.8659692417173809e-03   6   1   4   2 
 -3.1866060136795209e-02   6   5   4   2 
 -1.5110480776257314e-02   7   1   4   2 
  3.5793536837902998e-02   7   4   4   2 
 -7.8659692418275341e-03   8   2   4   2 
 -1.5110480776200546e-02   8   3   4   2 
 -3.9732029378451252e-02   8   6   4   2 
 -2.0683056062310634e-02   8   7   4   2 
  3.1866060136794591e-02   4   3   4   3 
 -3.5793536837903227e-02   5   2   4   3 
  1.5110480776257292e-02   6   1   4   3 
  3.5793536837902970e-02   6   4   4   3 
  7.8659692417173601e-03   7   1   4   3 
  3.1866060136793946e-02   7   5   4   3 
 -1.5110480776199368e-02   8   2   4   3 
  7.8659692418275220e-03   8   3   4   3 
  2.0683056062310603e-02   8   6   4   3 
 -3.9732029378452313e-02   8   7   4   3 
  2.4821650648813059e-01   4   4   4   4 
  2.4821650648813054e-01   5   5   4   4 
  2.4821650648813043e-01   6   6   4   4 
  2.4821650648813062e-01   7   7   4   4 
  2.4821650648813043e-01   8   8   4   4 
 -4.0283254825161643e-03   5   1   5   1 
  3.1694474765797459e-03   6   2   5   1 
 -1.6498996116787177e-03   6   3   5   1 
 -8.5887800595152268e-04   6   6   5   1 
  1.6498996116787177e-03   7   2   5   1 
  3.1694474765790025e-03   7   3   5   1 
  1.6498996116640131e-03   7   6   5   1 
  8.5887800595131560e-04   7   7   5   1 
 -4.0283254825161652e-03   8   4   5   1 
  3.8243934788907102e-03   5   2   5   2 
  1.1651126124722390e-02   6   1   5   2 
 -3.8243934788908941e-03   6   4   5   2 
  6.0651544506063566e-03   7   1   5   2 
 -3.5793536837902748e-02   7   5   5   2 
 -1.1651126124765369e-02   8   2   5   2 
  6.0651544505239182e-03   8   3   5   2 
 -1.5475519603729834e-02   8   6   5   2 
  2.9728382387180556e-02   8   7   5   2 
  3.8243934788914674e-03   5   3   5   3 
 -6.0651544506063262e-03   6   1   5   3 
 -3.5793536837903206e-02   6   5   5   3 
  1.1651126124721772e-02   7   1   5   3 
  3.8243934788912783e-03   7   4   5   3 
  6.0651544505239017e-03   8   2   5   3 
  1.1651126124764618e-02   8   3   5   3 
 -2.9728382387179085e-02   8   6   5   3 
 -1.5475519603729865e-02   8   7   5   3 
 -2.3485232706119585e-02   5   4   5   4 
  2.3485232706119630e-02   6   2   5   4 
 -2.3485232706119540e-02   7   3   5   4 
 -2.3485232706119571e-02   8   1   5   4 
  2.4821650648813057e-01   5   5   5   5 
  2.4821650648813046e-01   6   6   5   5 
  2.4821650648813054e-01   7   7   5   5 
  2.4821650648813043e-01   8   8   5   5 
 -1.9517095366641486e-02   6   1   6   1 
 -1.1651126124633229e-02   6   4   6   1 
 -7.8659692420572844e-03   6   5   6   1 
 -6.0651544507769953e-03   7   4   6   1 
  1.5110480776080204e-02   7   5   6   1 
  1.9517095366641302e-02   8   2   6   1 
 -9.0453263254899590e-03   8   7   6   1 
 -2.5892069839727718e-02   6   2   6   2 
  1.4649699957828242e-03   6   3   6   2 
  3.5524870765635806e-04   6   6   6   2 
 -1.4649699957828377e-03   7   2   6   2 
  2.1078395572511434e-02   7   3   6   2 
 -1.4649699957697791e-03   7   6   6   2 
 -3.5524870723770184e-04   7   7   6   2 
  2.3485232706119515e-02   8   1   6   2 
  3.1694474765847900e-03   8   4   6   2 
 -4.0736163550651521e-04   8   5   6   2 
 -3.5524870742559468e-04   6   3   6   3 
 -9.6746892842340616e-04   6   6   6   3 
  3.5524870742559451e-04   7   2   6   3 
  1.4649699957828442e-03   7   3   6   3 
  3.5524870742242691e-04   7   6   6   3 
  9.6746892842334924e-04   7   7   6   3 
 -1.6498996116675691e-03   8   4   6   3 
 -7.8253931254189575e-04   8   5   6   3 
  3.8243934788910776e-03   6   4   6   4 
 -6.0651544507797786e-03   7   1   6   4 
  3.5793536837902491e-02   7   5   6   4 
  1.1651126124674773e-02   8   2   6   4 
 -6.0651544506973437e-03   8   3   6   4 
  1.5475519603273841e-02   8   6   6   4 
 -2.9728382387417773e-02   8   7   6   4 
  3.1866060136795840e-02   6   5   6   5 
  1.5110480776079760e-02   7   1   6   5 
 -3.5793536837903449e-02   7   4   6   5 
  7.8659692421688601e-03   8   2   6   5 
  1.5110480776022991e-02   8   3   6   5 
  3.9732029378905499e-02   8   6   6   5 
  2.0683056061439706e-02   8   7   6   5 
  2.4921613061900327e-01   6   6   6   6 
  9.6746892842336507e-04   7   2   6   6 
  3.5524870723783325e-04   7   3   6   6 
  9.6746892841474350e-04   7   6   6   6 
  2.4721688235725747e-01   7   7   6   6 
 -8.5887800597291009e-04   8   4   6   6 
  1.5032534293797639e-03   8   5   6   6 
  2.4821650648813023e-01   8   8   6   6 
 -1.9517095366641517e-02   7   1   7   1 
  1.1651126124633244e-02   7   4   7   1 
  7.8659692420572774e-03   7   5   7   1 
 -1.9517095366641698e-02   8   3   7   1 
  9.0453263254894629e-03   8   6   7   1 
 -3.5524870742559630e-04   7   2   7   2 
 -1.4649699957828268e-03   7   3   7   2 
 -3.5524870742242870e-04   7   6   7   2 
 -9.6746892842338068e-04   7   7   7   2 
  1.6498996116675688e-03   8   4   7   2 
  7.8253931254189141e-04   8   5   7   2 
 -2.5892069839727746e-02   7   3   7   3 
 -1.4649699957697752e-03   7   6   7   3 
 -3.5524870765627371e-04   7   7   7   3 
 -2.3485232706119630e-02   8   1   7   3 
  3.1694474765855711e-03   8   4   7   3 
 -4.0736163550648963e-04   8   5   7   3 
  3.8243934788910893e-03   7   4   7   4 
  6.0651544506973238e-03   8   2   7   4 
  1.1651126124674659e-02   8   3   7   4 
 -2.9728382387416596e-02   8   6   7   4 
 -1.5475519603273872e-02   8   7   7   4 
  3.1866060136793314e-02   7   5   7   5 
 -1.5110480776021527e-02   8   2   7   5 
  7.8659692421688670e-03   8   3   7   5 
  2.0683056061439671e-02   8   6   7   5 
 -3.9732029378904805e-02   8   7   7   5 
 -3.5524870741926115e-04   7   6   7   6 
 -9.6746892841476800e-04   7   7   7   6 
  1.6498996116528625e-03   8   4   7   6 
  7.8253931253491880e-04   8   5   7   6 
  2.4921613061900369e-01   7   7   7   7 
  8.5887800597276437e-04   8   4   7   7 
 -1.5032534293799651e-03   8   5   7   7 
  2.4821650648813054e-01   8   8   7   7 
 -2.3485232706119567e-02   8   1   8   1 
 -1.9517095366641118e-02   8   2   8   2 
  9.0453263254894715e-03   8   7   8   2 
 -1.9517095366641885e-02   8   3   8   3 
  9.0453263254899469e-03   8   6   8   3 
 -4.0283254825161643e-03   8   4   8   4 
  1.9106150649361750e-03   8   5   8   5 
  5.5207548982325806e-02   8   6   8   6 
  5.5207548982328464e-02   8   7   8   7 
  2.4821650648813032e-01   8   8   8   8 
 -2.4294443128043341e-01   1   1   0   0 
 -1.6352381111698150e-01   2   2   0   0 
 -1.6352381111698150e-01   3   3   0   0 
 -3.2212538991808259e-02   4   4   0   0 
  3.2620700958760168e-01   5   5   0   0 
  4.5751828171277475e-01   6   6   0   0 
  4.5751828171277492e-01   7   7   0   0 
  5.3693890187622717e-01   8   8   0   0 
  0.0000000000000000e+00   0   0   0   0 
  0.0000000000000000e+00   0   0   0   0 
