 &FCI NORB=  8,NELEC=  8,MS2= 0,
  ORBSYM=1,1,1,1,1,1,1,1,
  ISYM=1 
 &END
  2.4821650648812918e-01   1   1   1   1 
  2.4821650648812918e-01   2   2   1   1 
  2.4821650648812890e-01   3   3   1   1 
  2.4821650648812887e-01   4   4   1   1 
  2.4821650648812899e-01   5   5   1   1 
  2.4821650648812899e-01   6   6   1   1 
  2.4821650648812904e-01   7   7   1   1 
  2.4821650648812885e-01   8   8   1   1 
  5.5207548981935042e-02   2   1   2   1 
 -3.9732029379947305e-02   4   2   2   1 
  2.0683056060209891e-02   4   3   2   1 
  1.5475519601989327e-02   5   2   2   1 
  2.9728382387314005e-02   5   3   2   1 
 -9.0453263271049016e-03   6   1   2   1 
 -2.9728382387313863e-02   6   4   2   1 
 -2.0683056060209922e-02   6   5   2   1 
  1.5475519601989327e-02   7   4   2   1 
 -3.9732029379946465e-02   7   5   2   1 
 -9.0453263271044627e-03   8   3   2   1 
 -5.5207548981935563e-02   8   7   2   1 
  2.4921613061917708e-01   2   2   2   2 
 -9.6746892832146394e-04   3   2   2   2 
  2.4721688235708114e-01   3   3   2   2 
 -1.5032534294567197e-03   4   1   2   2 
  2.4821650648812896e-01   4   4   2   2 
 -8.5887800579088555e-04   5   1   2   2 
  2.4821650648812904e-01   5   5   2   2 
  9.6746892832146048e-04   6   2   2   2 
  3.5524870738194020e-04   6   3   2   2 
  2.4721688235708120e-01   6   6   2   2 
  3.5524870738204949e-04   7   2   2   2 
 -9.6746892832145701e-04   7   3   2   2 
  9.6746892832145354e-04   7   6   2   2 
  2.4921613061917697e-01   7   7   2   2 
  8.5887800579096188e-04   8   4   2   2 
  1.5032534294564942e-03   8   5   2   2 
  2.4821650648812893e-01   8   8   2   2 
  5.5207548981937464e-02   3   1   3   1 
  2.0683056060209912e-02   4   2   3   1 
  3.9732029379946493e-02   4   3   3   1 
  2.9728382387315143e-02   5   2   3   1 
 -1.5475519601989307e-02   5   3   3   1 
  1.5475519601989321e-02   6   4   3   1 
 -3.9732029379947340e-02   6   5   3   1 
 -9.0453263271044453e-03   7   1   3   1 
  2.9728382387315250e-02   7   4   3   1 
  2.0683056060209926e-02   7   5   3   1 
  9.0453263271048686e-03   8   2   3   1 
  5.5207548981936860e-02   8   6   3   1 
 -3.5524870738199831e-04   3   2   3   2 
  9.6746892832144378e-04   3   3   3   2 
  7.8253931247336008e-04   4   1   3   2 
 -1.6498996115725533e-03   5   1   3   2 
  3.5524870738199918e-04   6   2   3   2 
  1.4649699957244523e-03   6   3   3   2 
  9.6746892832144378e-04   6   6   3   2 
  1.4649699957244543e-03   7   2   3   2 
 -3.5524870738199907e-04   7   3   3   2 
  3.5524870738199734e-04   7   6   3   2 
 -9.6746892832147424e-04   7   7   3   2 
  1.6498996115725517e-03   8   4   3   2 
 -7.8253931247335932e-04   8   5   3   2 
  2.4921613061917633e-01   3   3   3   3 
  1.5032534294566295e-03   4   1   3   3 
  2.4821650648812854e-01   4   4   3   3 
  8.5887800579087167e-04   5   1   3   3 
  2.4821650648812865e-01   5   5   3   3 
 -9.6746892832145354e-04   6   2   3   3 
 -3.5524870738205816e-04   6   3   3   3 
  2.4921613061917638e-01   6   6   3   3 
 -3.5524870738194540e-04   7   2   3   3 
  9.6746892832145354e-04   7   3   3   3 
 -9.6746892832146394e-04   7   6   3   3 
  2.4721688235708103e-01   7   7   3   3 
 -8.5887800579079882e-04   8   4   3   3 
 -1.5032534294568377e-03   8   5   3   3 
  2.4821650648812857e-01   8   8   3   3 
  1.9106150649379197e-03   4   1   4   1 
 -7.8253931247335899e-04   6   2   4   1 
  4.0736163548125498e-04   6   3   4   1 
  1.5032534294566265e-03   6   6   4   1 
  4.0736163548125883e-04   7   2   4   1 
  7.8253931247335845e-04   7   3   4   1 
 -7.8253931247336019e-04   7   6   4   1 
 -1.5032534294566937e-03   7   7   4   1 
 -1.9106150649379186e-03   8   5   4   1 
  3.1866060138343005e-02   4   2   4   2 
 -3.5793536837297399e-02   5   3   4   2 
  1.5110480777087754e-02   6   1   4   2 
  3.5793536837297177e-02   6   4   4   2 
 -7.8659692416051929e-03   7   1   4   2 
  3.1866060138342402e-02   7   5   4   2 
  7.8659692416051981e-03   8   2   4   2 
  1.5110480777087229e-02   8   3   4   2 
  2.0683056060209912e-02   8   6   4   2 
  3.9732029379947721e-02   8   7   4   2 
  3.1866060138340417e-02   4   3   4   3 
  3.5793536837296483e-02   5   2   4   3 
 -7.8659692416051911e-03   6   1   4   3 
 -3.1866060138341035e-02   6   5   4   3 
 -1.5110480777086353e-02   7   1   4   3 
  3.5793536837296691e-02   7   4   4   3 
  1.5110480777086856e-02   8   2   4   3 
 -7.8659692416051773e-03   8   3   4   3 
  3.9732029379946014e-02   8   6   4   3 
 -2.0683056060209884e-02   8   7   4   3 
  2.4821650648812857e-01   4   4   4   4 
  2.4821650648812871e-01   5   5   4   4 
  2.4821650648812857e-01   6   6   4   4 
  2.4821650648812885e-01   7   7   4   4 
  2.4821650648812854e-01   8   8   4   4 
 -4.0283254825144244e-03   5   1   5   1 
  1.6498996115725565e-03   6   2   5   1 
  3.1694474767238901e-03   6   3   5   1 
  8.5887800579086940e-04   6   6   5   1 
  3.1694474767231832e-03   7   2   5   1 
 -1.6498996115725556e-03   7   3   5   1 
  1.6498996115725535e-03   7   6   5   1 
 -8.5887800579090637e-04   7   7   5   1 
  4.0283254825144209e-03   8   4   5   1 
  3.8243934773439393e-03   5   2   5   2 
  6.0651544499824043e-03   6   1   5   2 
 -3.5793536837296948e-02   6   5   5   2 
  1.1651126124645441e-02   7   1   5   2 
  3.8243934773437576e-03   7   4   5   2 
 -1.1651126124645391e-02   8   2   5   2 
  6.0651544499823991e-03   8   3   5   2 
  2.9728382387314598e-02   8   6   5   2 
 -1.5475519601989333e-02   8   7   5   2 
  3.8243934773439583e-03   5   3   5   3 
  1.1651126124645288e-02   6   1   5   3 
 -3.8243934773441383e-03   6   4   5   3 
 -6.0651544499823948e-03   7   1   5   3 
 -3.5793536837296948e-02   7   5   5   3 
  6.0651544499823740e-03   8   2   5   3 
  1.1651126124645335e-02   8   3   5   3 
 -1.5475519601989314e-02   8   6   5   3 
 -2.9728382387314487e-02   8   7   5   3 
 -2.3485232706121323e-02   5   4   5   4 
  2.3485232706121267e-02   6   3   5   4 
 -2.3485232706121396e-02   7   2   5   4 
  2.3485232706121330e-02   8   1   5   4 
  2.4821650648812879e-01   5   5   5   5 
  2.4821650648812871e-01   6   6   5   5 
  2.4821650648812893e-01   7   7   5   5 
  2.4821650648812862e-01   8   8   5   5 
 -1.9517095366250913e-02   6   1   6   1 
 -1.1651126124644985e-02   6   4   6   1 
  7.8659692416051859e-03   6   5   6   1 
  6.0651544499824061e-03   7   4   6   1 
  1.5110480777087612e-02   7   5   6   1 
 -1.9517095366250729e-02   8   3   6   1 
  9.0453263271051063e-03   8   7   6   1 
 -3.5524870738200059e-04   6   2   6   2 
 -1.4649699957244458e-03   6   3   6   2 
 -9.6746892832145050e-04   6   6   6   2 
 -1.4649699957244681e-03   7   2   6   2 
  3.5524870738200048e-04   7   3   6   2 
 -3.5524870738199885e-04   7   6   6   2 
  9.6746892832147067e-04   7   7   6   2 
 -1.6498996115725561e-03   8   4   6   2 
  7.8253931247336029e-04   8   5   6   2 
 -2.5892069839981588e-02   6   3   6   3 
 -3.5524870738203908e-04   6   6   6   3 
  2.1078395572261065e-02   7   2   6   3 
  1.4649699957244664e-03   7   3   6   3 
 -1.4649699957244547e-03   7   6   6   3 
  3.5524870738194649e-04   7   7   6   3 
 -2.3485232706121378e-02   8   1   6   3 
 -3.1694474767231906e-03   8   4   6   3 
 -4.0736163548125981e-04   8   5   6   3 
  3.8243934773443213e-03   6   4   6   4 
  6.0651544499823991e-03   7   1   6   4 
  3.5793536837296712e-02   7   5   6   4 
 -6.0651544499823766e-03   8   2   6   4 
 -1.1651126124645032e-02   8   3   6   4 
  1.5475519601989327e-02   8   6   6   4 
  2.9728382387314341e-02   8   7   6   4 
  3.1866060138341659e-02   6   5   6   5 
  1.5110480777086484e-02   7   1   6   5 
 -3.5793536837297156e-02   7   4   6   5 
 -1.5110480777086988e-02   8   2   6   5 
  7.8659692416051721e-03   8   3   6   5 
 -3.9732029379946868e-02   8   6   6   5 
  2.0683056060209915e-02   8   7   6   5 
  2.4921613061917644e-01   6   6   6   6 
 -3.5524870738195234e-04   7   2   6   6 
  9.6746892832144660e-04   7   3   6   6 
 -9.6746892832145701e-04   7   6   6   6 
  2.4721688235708111e-01   7   7   6   6 
 -8.5887800579079882e-04   8   4   6   6 
 -1.5032534294568169e-03   8   5   6   6 
  2.4821650648812860e-01   8   8   6   6 
 -1.9517095366250199e-02   7   1   7   1 
  1.1651126124645734e-02   7   4   7   1 
 -7.8659692416052050e-03   7   5   7   1 
  1.9517095366250355e-02   8   2   7   1 
 -9.0453263271042146e-03   8   6   7   1 
 -2.5892069839981643e-02   7   2   7   2 
  1.4649699957244443e-03   7   3   7   2 
 -1.4649699957244543e-03   7   6   7   2 
  3.5524870738206011e-04   7   7   7   2 
  2.3485232706121295e-02   8   1   7   2 
 -3.1694474767238723e-03   8   4   7   2 
 -4.0736163548126198e-04   8   5   7   2 
 -3.5524870738200032e-04   7   3   7   3 
  3.5524870738199864e-04   7   6   7   3 
 -9.6746892832146904e-04   7   7   7   3 
  1.6498996115725546e-03   8   4   7   3 
 -7.8253931247335921e-04   8   5   7   3 
  3.8243934773435776e-03   7   4   7   4 
 -1.1651126124645677e-02   8   2   7   4 
  6.0651544499823974e-03   8   3   7   4 
  2.9728382387314709e-02   8   6   7   4 
 -1.5475519601989330e-02   8   7   7   4 
  3.1866060138341798e-02   7   5   7   5 
  7.8659692416052154e-03   8   2   7   5 
  1.5110480777087090e-02   8   3   7   5 
  2.0683056060209936e-02   8   6   7   5 
  3.9732029379946882e-02   8   7   7   5 
 -3.5524870738199739e-04   7   6   7   6 
  9.6746892832145614e-04   7   7   7   6 
 -1.6498996115725504e-03   8   4   7   6 
  7.8253931247335813e-04   8   5   7   6 
  2.4921613061917686e-01   7   7   7   7 
  8.5887800579097576e-04   8   4   7   7 
  1.5032534294565116e-03   8   5   7   7 
  2.4821650648812876e-01   8   8   7   7 
 -2.3485232706121337e-02   8   1   8   1 
 -1.9517095366250507e-02   8   2   8   2 
  9.0453263271046414e-03   8   6   8   2 
 -1.9517095366250545e-02   8   3   8   3 
  9.0453263271046726e-03   8   7   8   3 
 -4.0283254825144131e-03   8   4   8   4 
  1.9106150649379212e-03   8   5   8   5 
  5.5207548981936264e-02   8   6   8   6 
  5.5207548981936076e-02   8   7   8   7 
  2.4821650648812851e-01   8   8   8   8 
 -2.4294443127861956e-01   1   1   0   0 
 -1.6352381111722070e-01   2   2   0   0 
 -1.6352381111722059e-01   3   3   0   0 
 -3.2212538998966631e-02   4   4   0   0 
  3.2620700959476889e-01   5   5   0   0 
  4.5751828171302289e-01   6   6   0   0 
  4.5751828171302311e-01   7   7   0   0 
  5.3693890187442128e-01   8   8   0   0 
  0.0000000000000000e+00   0   0   0   0 
  0.0000000000000000e+00   0   0   0   0 
