 &FCI NORB=  4,NELEC=  2,MS2= 0,
  ORBSYM=1,1,1,1,
  ISYM=1 
 &END
  3.3112109698549963e-01   1   1   1   1 
  3.1988872913082400e-01   2   2   1   1 
  4.5421240324401060e-03   3   2   1   1 
  3.7051198455556794e-01   3   3   1   1 
 -2.1519382659250477e-02   4   1   1   1 
  3.5927961670089220e-01   4   4   1   1 
 -2.3811155034377304e-03   2   1   2   1 
  5.0964226507995234e-03   3   1   2   1 
 -2.3185678618575390e-03   4   2   2   1 
 -8.8263354345513821e-03   4   3   2   1 
  2.9969523058476583e-01   2   2   2   2 
  8.1658094029492187e-03   3   2   2   2 
  3.9070548310162628e-01   3   3   2   2 
 -3.8687445787377275e-02   4   1   2   2 
  3.7051198455556800e-01   4   4   2   2 
 -1.8543053317215323e-03   3   1   3   1 
  3.0515456603560026e-03   4   2   3   1 
  2.3185678618575299e-03   4   3   3   1 
 -1.4653391538044739e-03   3   2   3   2 
 -8.1658094029492204e-03   3   3   3   2 
  6.9423894528394484e-03   4   1   3   2 
 -4.5421240324401008e-03   4   4   3   2 
  2.9969523058476571e-01   3   3   3   3 
  3.8687445787377303e-02   4   1   3   3 
  3.1988872913082400e-01   4   4   3   3 
 -3.2891205554538470e-02   4   1   4   1 
  2.1519382659250463e-02   4   4   4   1 
 -1.8543053317215386e-03   4   2   4   2 
 -5.0964226507995165e-03   4   3   4   2 
 -2.3811155034377178e-03   4   3   4   3 
  3.3112109698549974e-01   4   4   4   4 
 -2.6113799866425802e-01   1   1   0   0 
 -1.4713409935832072e-01   2   2   0   0 
  4.4112856995412031e-01   3   3   0   0 
  5.5513246926005755e-01   4   4   0   0 
  0.0000000000000000e+00   0   0   0   0 
  0.0000000000000000e+00   0   0   0   0 
